! Touchstone file exported from HFSS 2025.1.0
!        File:           C:/Users/njchorda/Downloads/NRW_SimulationTest.aedt
!        Generated:      02:25:31 AM Mar  2, 2026
!        Design:         HFSSDesign1
!        Project:        NRW_SimulationTest
!        Setup:          Setup1
!        Solution:       Sweep
!
! Variables:
!        Lfeed = 10mm
!        a = 22.86mm
!        b = 10.16mm
!        d = 6.3mm
!
!Data is not renormalized
# GHz S MA
! Terminal data exported
! Port[1] = 1
! Port[2] = 2
8                              0.607323257997413 -166.100547868266 0.793375167810826 -76.0164155308512 0.793375167810825 -76.0164155308513 0.607323324674231 -166.1006981891  
! Gamma         0                96.0523868093574 0                96.0524692737329 
! Port Impedance         584.541451814304 0                584.535551075933 0                
8.01                           0.60641223184528 -166.192112613883 0.794069993369739 -76.1066430895942 0.794069993369738 -76.1066430895943 0.606412266167064 -166.192254613981 
! Gamma         0                96.417768067585  0                96.4178502194567 
! Port Impedance         583.054202710956 0                583.048320772508 0                
8.02                           0.60550755495823 -166.283928780907 0.794758558129942 -76.1972443807009 0.794758558129941 -76.197244380701 0.605507559870266 -166.284062525596 
! Gamma         0                96.7822237697705 0                96.7823056122808 
! Port Impedance         581.583744900903 0                581.577881521673 0                
8.03                           0.60460915524138 -166.375992436402 0.795440937713879 -76.2882097813059 0.795440937713878 -76.2882097813059 0.604609133540417 -166.376117988051 
! Gamma         0                97.145764332967  0                97.1458458692051 
! Port Impedance         580.129785162233 0                580.123940106246 0                
8.04                           0.603716961070488 -166.468299738583 0.796117207331361 -76.3795299273008 0.796117207331361 -76.3795299273009 0.603716915409889 -166.468417156633 
! Gamma         0                97.5083999929131 0                97.5084812259165 
! Port Impedance         578.692037281413 0                578.6862103173   0                
8.05                           0.602830901297892 -166.560846933636 0.796787441765612 -76.4711957069339 0.796787441765612 -76.471195706934 0.602830834192649 -166.560956274638 
! Gamma         0                97.8701408083518 0                97.8702217411076 
! Port Impedance         577.270221840462 0                577.264412741338 0                
8.06                           0.60195090525805 -166.653630352668 0.797451715359847 -76.5631982545713 0.797451715359846 -76.5631982545714 0.601950819089659 -166.653731670318 
! Gamma         0                98.2309966652198 0                98.2310773006658 
! Port Impedance         575.864066011944 0                575.858274555293 0                
8.07                           0.601076902772679 -166.746646408778 0.798110102004382 -76.6555289446149 0.798110102004381 -76.6555289446149 0.601076799793883 -166.746739753956 
! Gamma         0                98.5909772807093 0                98.5910576217351 
! Port Impedance         574.473303361462 0                574.467529329016 0                
8.08                           0.600208824155515 -166.839891594241 0.798762675124259 -76.7481793855721 0.798762675124259 -76.7481793855721 0.600208706494917 -166.839977015049 
! Gamma         0                98.9500922072101 0                98.9501722566582 
! Port Impedance         573.097673657312 0                573.09191683495  0                
8.09                           0.599346600216709 -166.933362477809 0.799409507667383 -76.841141414273 0.799409507667383 -76.8411414142731 0.599346469883256 -166.933440019611 
! Gamma         0                99.3083508361333 0                99.3084305968003 
! Port Impedance         571.736922687015 0                571.731182864651 0                
8.1                            0.598490162266874 -167.027055702117 0.800050672093157 -76.9344070902301 0.800050672093156 -76.9344070902302 0.598490021154219 -167.027125407577 
! Gamma         0                99.6657624016233 0                99.6658418762606 
! Port Impedance         570.390802080416 0                570.385079051895 0                
8.11                           0.597639442120795 -167.120967981184 0.800686240361621 -77.0279686901358 0.80068624036162 -77.0279686901358 0.597639292011539 -167.121029890312 
! Gamma         0                100.02233598416  0                100.022415175475 
! Port Impedance         569.059069139083 0                569.053362702086 0                
8.12                           0.596794372100821 -167.215096098024 0.801316283923073 -77.121818702495 0.801316283923073 -77.1218187024951 0.596794214670632 -167.215150248217 
! Gamma         0                100.378080514058 0                100.378159424716 
! Port Impedance         567.741486671745 0                567.73579662769  0                
8.13                           0.595954885039945 -167.309436902345 0.801940873708174 -77.2159498223876 0.801940873708174 -77.2159498223876 0.595954721861569 -167.309483328425 
! Gamma         0                100.733004774862 0                100.733083407485 
! Port Impedance         566.437822835513 0                566.43214898946  0                
8.14                           0.595120914284588 -167.403987308336 0.802560080118516 -77.310354946357 0.802560080118516 -77.3103549463571 0.595120746831742 -167.4040260426  
! Gamma         0                101.087117406647 0                101.087195763816 
! Port Impedance         565.147850982647 0                565.142193143211 0                
8.15                           0.594292393697102 -167.498744292544 0.803173973017665 -77.4050271674223 0.803173973017664 -77.4050271674224 0.594292223348263 -167.498775364804 
! Gamma         0                101.440426909221 0                101.440504993479 
! Port Impedance         563.871349512647 0                563.865707491905 0                
8.16                           0.593469257658   -167.593704891835 0.803782621722643 -77.4999597702089 0.803782621722643 -77.4999597702089 0.593469085700081 -167.593728329464 
! Gamma         0                101.792941645244 0                101.793019459092 
! Port Impedance         562.60810172944  0                562.602475342852 0                
8.17                           0.592651441067923 -167.688866201434 0.80438609499588 -77.5951462261954 0.804386094995879 -77.5951462261954 0.592651268699852 -167.68888202941 
! Gamma         0                102.144669843248 0                102.144747389149 
! Port Impedance         561.357895703466 0                561.352284769789 0                
8.18                           0.59183887934936 -167.784225373036 0.804984461037578 -77.6905801890735 0.804984461037578 -77.6905801890735 0.591838707685552 -167.784233613986 
! Gamma         0                102.495619600583 0                102.495696880964 
! Port Impedance         560.120524138469 0                560.114928479679 0                
8.19                           0.591031508448127 -167.879779613002 0.805577787478524 -77.7862554902167 0.805577787478524 -77.7862554902167 0.59103133852186 -167.879780287249 
! Gamma         0                102.845798886274 0                102.845875903522 
! Port Impedance         558.895784242794 0                558.890203684006 0                
8.2                            0.590229264834617 -167.975526180612 0.806166141373317 -77.8821661342561 0.806166141373317 -77.8821661342561 0.59022909760131 -167.975519306221 
! Gamma         0                103.1952155438   0                103.19529230027  
! Port Impedance         557.683477605014 0                557.677911974409 0                
8.21                           0.58943208550483 -168.0714623864  0.806749589194007 -77.9783062947596 0.806749589194006 -77.9783062947596 0.589431921845231 -168.07144797922 
! Gamma         0                103.543877293802 0                103.543953791812 
! Port Impedance         556.483410073722 0                556.477859202476 0                
8.22                           0.58863990798119 -168.167585590539 0.80732819682414 -78.0746703100121 0.807328196824139 -78.0746703100121 0.588639748704464 -168.167563664252 
! Gamma         0                103.891791736709 0                103.891867978541 
! Port Impedance         555.295391641326 0                555.289855363535 0                
8.23                           0.587852670313166 -168.263893201303 0.807902029553206 -78.1712526788934 0.807902029553206 -78.1712526788934 0.587852516159903 -168.263863767468 
! Gamma         0                104.238966355296 0                104.2390423432   
! Port Impedance         554.119236331672 0                554.113714484286 0                
8.24                           0.587070311077692 -168.360382673577 0.808471152071459 -78.2680480568523 0.808471152071459 -78.2680480568524 0.587070162722822 -168.360345741676 
! Gamma         0                104.585408517176 0                104.585484253368 
! Port Impedance         552.954762091376 0                552.949254514133 0                
8.25                           0.58629276937941 -168.457051507433 0.809035628465135 -78.3650512519734 0.809035628465134 -78.3650512519734 0.586292627435033 -168.457007084918 
! Gamma         0                104.931125477218 0                104.931200963882 
! Port Impedance         551.801790684693 0                551.796297220053 0                
8.26                           0.585519984850728 -168.553897246759 0.809595522212022 -78.4622572211344 0.809595522212022 -78.4622572211344 0.585519849868865 -168.553845339093 
! Gamma         0                105.276124379908 0                105.276199619195 
! Port Impedance         550.660147591808 0                550.654668084893 0                
8.27                           0.584751897651719 -168.650917477936 0.810150896177413 -78.5596610662522 0.810150896177413 -78.5596610662522 0.584751770126976 -168.650858088644 
! Gamma         0                105.620412261642 0                105.620487255674 
! Port Impedance         549.529661910412 0                549.52419620894  0                
8.28                           0.583988448469841 -168.748109828577 0.810701812610394 -78.6572580306144 0.810701812610394 -78.6572580306145 0.583988328842   -168.748042959286 
! Gamma         0                105.963996052959 0                105.964070803827 
! Port Impedance         548.41016626043  0                548.40471421466  0                
8.29                           0.583229578519521 -168.845471966302 0.811248333140491 -78.7550434952955 0.811248333140491 -78.7550434952955 0.583229467176048 -168.845397616791 
! Gamma         0                106.306882580721 0                106.306957090484 
! Port Impedance         547.301496691798 0                547.296058154473 0                
8.3                            0.582475229541575 -168.943001597574 0.811790518774648 -78.853012975654 0.811790518774648 -78.8530129756539 0.582475126820063 -168.942919765813 
! Gamma         0                106.649078570224 0                106.649152840915 
! Port Impedance         546.203492595163 0                546.198067421452 0                
8.31                           0.581725343802499 -169.04069646657 0.812328429894539 -78.9511621179098 0.812328429894539 -78.9511621179098 0.581725249993023 -169.040607148768 
! Gamma         0                106.99059064727  0                106.99066468089  
! Port Impedance         545.115996615403 0                545.110584662848 0                
8.32                           0.580979864093609 -169.138554354099 0.812862126254198 -79.0494866957997 0.812862126254198 -79.0494866957997 0.580979779441024 -169.138457544747 
! Gamma         0                107.331425340171 0                107.331499138694 
! Port Impedance         544.038854567856 0                544.03345569632  0                
8.33                           0.580238733730069 -169.236573076564 0.813391666977963 -79.1479826073077 0.813391666977963 -79.1479826073077 0.580238658436226 -169.236468768477 
! Gamma         0                107.671589081711 0                107.671662647085 
! Port Impedance         542.971915357171 0                542.966529428784 0                
8.34                           0.579501896549777 -169.334750484962 0.813917110558728 -79.2466458714707 0.813917110558728 -79.2466458714707 0.579501830775682 -169.334638669325 
! Gamma         0                108.011088211053 0                108.011161545198 
! Port Impedance         541.915030898665 0                541.909657777778 0                
8.35                           0.578769296912144 -169.433084463923 0.81443851485649 -79.3454726252551 0.81443851485649 -79.345472625255 0.578769240780043 -169.432965130331 
! Gamma         0                108.349928975603 0                108.350002080411 
! Port Impedance         540.868056042119 0                540.862695595251 0                
8.36                           0.578040879696759 -169.531572930789 0.814955937097185 -79.444459120505 0.814955937097185 -79.444459120505 0.578040833292161 -169.531446067291 
! Gamma         0                108.688117532818 0                108.688190410157 
! Port Impedance         539.830848497902 0                539.825500593698 0                
8.37                           0.577316590301941 -169.630213834724 0.815469433871811 -79.5436017209593 0.815469433871811 -79.5436017209593 0.577316553675577 -169.630079427865 
! Gamma         0                109.025659951977 0                109.025732603689 
! Port Impedance         538.803268765356 0                538.797933274539 0                
8.38                           0.576596374643187 -169.729005155864 0.815979061135814 -79.6428968993346 0.815979061135814 -79.6428968993345 0.576596347812911 -169.728863190724 
! Gamma         0                109.362562215906 0                109.362634643806 
! Port Impedance         537.78518006335  0                537.779856858676 0                
8.39                           0.575880179151528 -169.827944904498 0.816484874208757 -79.7423412344757 0.816484874208757 -79.7423412344757 0.575880162104152 -169.827795364734 
! Gamma         0                109.698830222654 0                109.698902428536 
! Port Impedance         536.776448262936 0                536.771137219149 0                
8.4                            0.575167950771788 -169.927031120277 0.816986927774231 -79.8419314085689 0.816986927774232 -79.8419314085689 0.575167943464863 -169.926873988165 
! Gamma         0                110.034469787138 0                110.03454177277  
! Port Impedance         535.776941822015 0                535.77164281581  0                
8.41                           0.574459636960747 -170.026261871463 0.817485275880036 -79.9416642044186 0.817485275880036 -79.9416642044186 0.574459639324283 -170.026097127934 
! Gamma         0                110.369486642738 0                110.369558409864 
! Port Impedance         534.786531721971 0                534.781244631948 0                
8.42                           0.573755185685225 -170.125635254197 0.817979971938582 -80.0415365027848 0.817979971938582 -80.0415365027847 0.573755197623362 -170.12546287888 
! Gamma         0                110.70388644286  0                110.703957993202 
! Port Impedance         533.805091406168 0                533.799816112794 0                
8.43                           0.573054545420085 -170.225149391804 0.818471068727557 -80.1415452797805 0.818471068727557 -80.1415452797804 0.573054566812704 -170.224969363061 
! Gamma         0                111.037674762456 0                111.037746097711 
! Port Impedance         532.832496720279 0                532.827233105849 0                
8.44                           0.572357665146153 -170.324802434121 0.818958618390798 -80.2416876043277 0.818958618390798 -80.2416876043277 0.572357695850432 -170.324614729087 
! Gamma         0                111.37085709951  0                111.370928221355 
! Port Impedance         531.868625854361 0                531.863373802961 0                
8.45                           0.571664494348068 -170.424592556853 0.819442672439403 -80.3419606356708 0.819442672439403 -80.3419606356708 0.571664534199991 -170.424397151471 
! Gamma         0                111.703438876486 0                111.703509786576 
! Port Impedance         530.913359286623 0                530.908118684092 0                
8.46                           0.570974983012054 -170.524517960951 0.819923281753048 -80.4423616209449 0.819923281753049 -80.4423616209449 0.570975031827871 -170.524314830012 
! Gamma         0                112.035425441748 0                112.035496141716 
! Port Impedance         529.966579728833 0                529.961350462726 0                
8.47                           0.570289081623639 -170.624576872022 0.820400496581528 -80.5428878927999 0.820400496581528 -80.5428878927998 0.570289139201269 -170.624365989197 
! Gamma         0                112.366822070935 0                112.366892562392 
! Port Impedance         529.028172073299 0                529.022954032856 0                
8.48                           0.569606741165293 -170.724767539754 0.820874366546476 -80.6435368670771 0.820874366546476 -80.6435368670771 0.56960680728569 -170.724548877632 
! Gamma         0                112.697633968314 0                112.697704252851 
! Port Impedance         528.098023341382 0                528.092816417488 0                
8.49                           0.568927913114018 -170.825088237369 0.821344940643306 -80.7443060405391 0.821344940643306 -80.7443060405391 0.568927987542476 -170.82486176749 
! Gamma         0                113.027866268094 0                113.027936347281 
! Port Impedance         527.176022633475 0                527.170826718631 0                
8.5                            0.568252549438871 -170.925537261096 0.821812267243326 -80.8451929886494 0.821812267243326 -80.8451929886494 0.568252631926298 -170.925302953984 
! Gamma         0                113.357524035713 0                113.357593911101 
! Port Impedance         526.262061080413 0                526.256876068704 0                
8.51                           0.567580602598437 -171.026112929664 0.822276394096044 -80.9461953634032 0.822276394096044 -80.9461953634032 0.567580692882576 -171.025870754863 
! Gamma         0                113.686612269095 0                113.686681942215 
! Port Impedance         525.356031796259 0                525.35085758332  0                
8.52                           0.566912025538251 -171.126813583819 0.822737368331643 -81.0473108912065 0.822737368331643 -81.0473108912065 0.566912123344855 -171.126563509921 
! Gamma         0                114.015135899874 0                114.015205372238 
! Port Impedance         524.457829832417 0                524.452666315402 0                
8.53                           0.566246771688161 -171.227637585853 0.823195236463638 -81.1485373708031 0.823195236463638 -81.148537370803 0.566246876732136 -171.227379580534 
! Gamma         0                114.343099794598 0                114.343169067698 
! Port Impedance         523.567352133035 0                523.562199210592 0                
8.54                           0.565584794959659 -171.328583319161 0.823650044391685 -81.2498726712484 0.823650044391686 -81.2498726712483 0.565584906946153 -171.328317349209 
! Gamma         0                114.670508755891 0                114.670577831202 
! Port Impedance         522.684497491657 0                522.679355063891 0                
8.55                           0.564926049743147 -171.429649187811 0.824101837404559 -81.3513147299294 0.824101837404559 -81.3513147299294 0.564926168368611 -171.429375219155 
! Gamma         0                114.997367523607 0                114.997436402584 
! Port Impedance         521.809166509066 0                521.804034477517 0                
8.56                           0.564270490905184 -171.530833616126 0.82455066018328 -81.4528615506291 0.82455066018328 -81.4528615506291 0.564270615858384 -171.53055161387 
! Gamma         0                115.323680775942 0                115.323749460024 
! Port Impedance         520.941261552308 0                520.936139819919 0                
8.57                           0.56361807378567 -171.632135048297 0.824996556804384 -81.5545112016345 0.824996556804385 -81.5545112016345 0.563618204748667 -171.631844976743 
! Gamma         0                115.649453130529 0                115.649521621135 
! Port Impedance         520.080686714827 0                520.075575185921 0                
8.58                           0.562968754195012 -171.733551947994 0.825439570743347 -81.6562618138885 0.825439570743347 -81.6562618138885 0.562968890844096 -171.733253770674 
! Gamma         0                115.974689145505 0                115.974757444038 
! Port Impedance         519.227347777706 0                519.222246357954 0                
8.59                           0.562322488411235 -171.835082798011 0.825879744878124 -81.7581115791829 0.825879744878124 -81.7581115791829 0.562322630417835 -171.83477647771 
! Gamma         0                116.299393320557 0                116.299461428403 
! Port Impedance         518.381152171949 0                518.376060768349 0                
8.6                            0.561679233177075 -171.936726099908 0.826317121492845 -81.8600587483933 0.826317121492845 -81.8600587483932 0.561679380208626 -171.936411598692 
! Gamma         0                116.623570097944 0                116.623638016471 
! Port Impedance         517.542008941793 0                517.536927462642 0                
8.61                           0.561038945697031 -172.03848037368 0.826751742281614 -81.9621016297532 0.826751742281615 -81.9621016297532 0.561039097417803 -172.038157652923 
! Gamma         0                116.947223863491 0                116.947291594052 
! Port Impedance         516.709828709009 0                516.704757063882 0                
8.62                           0.56040158363439 -172.140344157436 0.827183648352442 -82.0642385871694 0.827183648352442 -82.0642385871694 0.56040173970629 -172.140013177843 
! Gamma         0                117.270358947571 0                117.270426491502 
! Port Impedance         515.884523638159 0                515.879461737878 0                
8.63                           0.55976710510822 -172.24231600709 0.827612880231288 -82.166468038574 0.827612880231288 -82.166468038574 0.559767265191556 -172.241976728718 
! Gamma         0                117.592979626055 0                117.593046984677 
! Port Impedance         515.066007402776 0                515.060955159395 0                
8.64                           0.559135468690339 -172.344394496062 0.828039477866212 -82.2687884543158 0.828039477866213 -82.2687884543158 0.55913563244456 -172.344046878348 
! Gamma         0                117.91509012125  0                117.915157295868 
! Port Impedance         514.254195152456 0                514.249152479231 0                
8.65                           0.558506633402262 -172.446578215   0.828463480631641 -82.3711983555875 0.828463480631642 -82.3711983555875 0.558506800486651 -172.446222216779 
! Gamma         0                118.236694602811 0                118.236761594714 
! Port Impedance         513.449003480803 0                513.443970292175 0                
8.66                           0.557880558712115 -172.548865771503 0.828884927332719 -82.4736963128904 0.828884927332719 -82.4736963128904 0.55788072878647 -172.548501351032 
! Gamma         0                118.557797188635 0                118.557863999097 
! Port Impedance         512.650350394233 0                512.645326605802 0                
8.67                           0.557257204531534 -172.651255789866 0.82930385620977 -82.5762809445338 0.82930385620977 -82.5762809445338 0.557257377256804 -172.650882904841 
! Gamma         0                118.878401945735 0                118.878468576015 
! Port Impedance         511.858155281588 0                511.853140810094 0                
8.68                           0.556636531212541 -172.753746910824 0.829720304942842 -82.6789509151696 0.829720304942842 -82.6789509151696 0.556636706251444 -172.753365518402 
! Gamma         0                119.198512891097 0                119.198579342439 
! Port Impedance         511.072338884538 0                511.067333647841 0                
8.69                           0.556018499544404 -172.856337791319 0.830134310656342 -82.7817049343606 0.830134310656342 -82.7817049343606 0.556018676562008 -172.855947848137 
! Gamma         0                119.518133992518 0                119.518200266153 
! Port Impedance         510.292823268765 0                510.287827185822 0                
8.7                            0.555403070750472 -172.959027104265 0.830545909923757 -82.884541755183 0.830545909923757 -82.884541755183 0.555403249414752 -172.958628566457 
! Gamma         0                119.837269169424 0                119.837335266568 
! Port Impedance         509.519531795875 0                509.514544786722 0                
8.71                           0.554790206484995 -173.061813538332 0.830955138772441 -82.9874601728606 0.830955138772441 -82.9874601728606 0.554790386467369 -173.061406361546 
! Gamma         0                120.155922293675 0                120.155988215529 
! Port Impedance         508.752389096046 0                508.747411081776 0                
8.72                           0.554179868829936 -173.164695797735 0.831362032688494 -83.0904590234321 0.831362032688494 -83.0904590234321 0.554180049805764 -173.16427993715 
! Gamma         0                120.474097190348 0                120.474162938101 
! Port Impedance         507.991321041365 0                507.986351944113 0                
8.73                           0.553572020291759 -173.267672602033 0.831766626621695 -83.1935371824489 0.831766626621695 -83.1935371824489 0.55357220194082 -173.267248012372 
! Gamma         0                120.791797638508 0                120.791863213335 
! Port Impedance         507.236254719854 0                507.231294462777 0                
8.74                           0.552966623798206 -173.370742685933 0.832168954990514 -83.2966935637043 0.832168954990514 -83.2966935637043 0.552966805805156 -173.370309321481 
! Gamma         0                121.10902737196  0                121.109092775023 
! Port Impedance         506.487118410148 0                506.482166917405 0                
8.75                           0.552363642695065 -173.473904799109 0.832569051687176 -83.399927117993 0.832569051687176 -83.399927117993 0.552363824749866 -173.473462613724 
! Gamma         0                121.425790079988 0                121.425855312434 
! Port Impedance         505.743841556815 0                505.738898753551 0                
8.76                           0.551763040742925 -173.577157706021 0.832966950082794 -83.503236831899 0.832966950082795 -83.503236831899 0.551763222541248 -173.576706653147 
! Gamma         0                121.742089408075 0                121.742154471039 
! Port Impedance         505.006354746295 0                505.001420558624 0                
8.77                           0.551164782113916 -173.68050018575 0.833362683032547 -83.6066217266142 0.833362683032548 -83.6066217266142 0.551164963357528 -173.680040218432 
! Gamma         0                122.05792895861  0                122.057993853216 
! Port Impedance         504.274589683446 0                504.269664038431 0                
8.78                           0.550568831388453 -173.783931031832 0.833756282880918 -83.710080856784 0.833756282880919 -83.710080856784 0.550569011785572 -173.783462102722 
! Gamma         0                122.373312291584 0                122.373377018943 
! Port Impedance         503.548479168662 0                503.543561994303 0                
8.79                           0.549975153551952 -173.887449052104 0.834147781466973 -83.8136133093814 0.834147781466973 -83.8136133093814 0.549975332817592 -173.886971113477 
! Gamma         0                122.688242925266 0                122.688307486475 
! Port Impedance         502.827957075575 0                502.823048300789 0                
8.8                            0.549383713991555 -173.991053068556 0.834537210129689 -83.917218202608 0.834537210129689 -83.917218202608 0.549383891847838 -173.990566072314 
! Gamma         0                123.002724336869 0                123.002788733015 
! Port Impedance         502.112958329295 0                502.108057883902 0                
8.81                           0.548794478492843 -174.094741917186 0.834924599713327 -84.020894684822 0.834924599713327 -84.020894684822 0.5487946546693  -174.094245814872 
! Gamma         0                123.316759963201 0                123.316824195357 
! Port Impedance         501.403418885187 0                501.398526699896 0                
8.82                           0.548207413236538 -174.198514447868 0.835309980572831 -84.1246419334923 0.835309980572831 -84.1246419334923 0.548207587470385 -174.198009190669 